<VTKFile type="UnstructuredGrid" version="0.1" byte_order="BigEndian">
  <UnstructuredGrid>
    <Piece NumberOfPoints="1190" NumberOfCells="2564">
      <PointData>
        <DataArray type="Float64" Name="position" NumberOfComponents="3" format="ascii">
-2.68098 0.867555 -2.06375
-2.05565 2.08141 -2.31277
-2.09358 0.488172 -1.7257
-7.2154 5.62522 -2.04219
-7.48308 5.86356 -1.60864
-6.09696 5.27852 -2.49852
-7.37579 2.54654 1.98657
-7.4755 2.26478 1.94208
-5.13243 2.52499 1.39376
-10.8676 2.66609 0.349093
-10.0873 2.5578 -0.0817641
-9.97029 1.74506 -0.446937
-1.2255 -6.90039 1.3241
-1.36097 -6.86571 1.34644
-0.879782 -6.44631 1.37026
8.96828 0.932516 -1.75053
9.8136 1.91865 -1.36993
9.89272 0.889026 -1.06344
2.7833 -6.31282 0.490525
2.36714 -5.65922 -0.0125603
2.1027 -6.34178 -1.0194
-8.74891 -4.57669 0.686897
-8.92881 -3.98692 -0.361296
-8.89305 -4.9786 -0.12123
-9.48694 5.33237 -0.88155
-8.21028 4.87724 -1.09514
-8.85728 4.60636 -1.38564
-0.963231 -7.35671 1.63451
-0.682539 -6.93945 1.54139
-7.59146 -0.693223 -1.21007
-6.81766 -0.0320647 -1.54807
-7.50909 -1.51677 -1.7066
-1.89634 -7.33934 1.49568
-1.41949 -7.01202 1.36039
-8.4357 2.49226 2.48942
-2.08383 -1.19169 -1.5017
-2.10009 0.119612 -1.31395
-1.35988 0.16306 -1.79187
1.98891 -0.920735 -1.5851
1.5398 -2.11284 -1.68179
1.9228 -0.909765 -2.23101
-8.68171 3.21887 0.0217605
-8.85837 3.30548 0.485516
-3.12098 0.346999 -0.323349
-2.76443 1.51742 -0.165425
-4.39006 -1.04036 0.464885
-3.18492 -7.29267 1.15539
-4.62956 -6.96765 1.66927
-5.32858 -7.32085 1.1568
-2.94433 5.86359 -1.77662
-2.48374 6.19959 -1.94562
2.53946 -0.118712 -1.80818
2.95453 0.238928 -1.81895
-2.16945 4.37884 -1.69347
-1.85733 3.15417 -1.57234
-1.50944 3.71787 -2.29401
-7.36495 5.1481 -0.712522
-7.54811 4.96399 -1.35197
-8.20595 5.22393 -0.545934
-0.588252 -1.38722 0.724719
-0.880866 -0.3142 0.21319
-1.44008 -1.09448 0.11972
-4.0801 6.23178 -0.372979
-2.74709 7.15291 -0.0471235
-2.46748 6.90369 -0.281807
-7.91767 -6.70208 -3.88816
-7.55786 -6.23285 -3.72984
-7.87649 -6.69673 -3.55111
-2.93349 -7.07242 -0.0522968
-3.03103 -7.09172 -1.11275
-2.0795 -7.31092 0.276032
4.14016 -0.400762 -0.461138
3.20488 -2.08054 -0.664142
3.92232 -1.78803 -0.149408
3.16695 -6.41841 2.78131
3.85838 -6.42602 2.89727
3.60262 -6.08571 2.82039
-9.15315 2.18872 2.88385
-9.19758 2.61137 2.97822
-9.97355 2.54642 2.6249
-2.45773 5.24624 -3.69174
-1.92885 5.89667 -4.51959
-1.7793 5.98331 -4.27356
-9.01985 5.18045 0.0632342
-9.69069 5.02871 0.144268
-8.84428 3.96672 -0.244799
-8.34575 -6.08845 0.31794
-8.38043 -5.42382 -1.12867
-8.19728 -6.23894 -0.435775
-0.819092 -2.6921 0.962662
-0.0954703 -2.20004 0.7588
-1.22658 -2.16752 0.729112
4.16725 1.39817 0.0198724
3.15069 2.01589 0.0946687
3.11926 1.37652 -0.0894826
9.11675 -5.41242 1.42758
8.40797 -6.53958 1.7062
8.6464 -6.16326 0.456092
-4.83873 3.58717 0.90466
-5.8813 3.29448 1.25845
-3.82542 -3.78162 2.67672
-5.53341 -2.82786 2.3713
-5.1075 -3.46516 2.65619
5.23041 -1.10566 1.79076
5.13938 -2.14602 1.60739
4.61376 0.0758029 0.941118
-4.90592 5.98316 -3.51819
-3.78749 6.91522 -3.67839
-4.94494 5.56038 -2.94388
-2.526 7.08823 -1.7547
-2.87822 6.99077 -2.16438
-3.45803 7.23995 -1.72757
3.38478 -3.75006 1.99288
2.54379 -4.1583 0.383976
2.17532 -4.57556 0.464967
-0.603425 2.80741 -1.75015
-0.608844 1.47445 -2.04303
-0.974068 1.92956 -1.70806
-1.452 -5.65424 -3.16725
-1.3057 -5.48419 -2.70662
-1.90935 -6.50383 -3.50339
-3.90128 -6.9552 -0.908979
-3.12748 -6.88703 -0.404804
-7.61855 -6.19925 1.56538
-6.48386 -6.17987 2.18096
-7.53836 -4.86849 2.00132
-5.68947 4.4762 -0.860049
-4.99804 4.31343 0.204921
-6.81333 4.57345 0.550799
-3.85143 -3.57802 -1.96928
-3.9338 -4.11219 -2.55787
-4.91676 -3.72207 -2.37355
-7.06584 3.44633 0.657536
-5.32967 3.92335 -0.146294
-7.53185 3.31646 -0.245039
-5.39794 2.82857 0.778032
-4.10611 2.41672 0.858579
-6.32889 2.7093 1.05902
-7.29126 -2.69475 -2.00704
-6.628 -2.93516 -2.90226
-7.44082 -3.44132 -2.66828
4.72647 -4.52297 2.95293
5.55879 -7.00752 0.545514
4.91504 -5.41371 2.43688
4.66578 -3.32409 1.72419
4.70479 -3.68498 1.73496
-8.57659 -6.55395 -2.22132
-9.41867 -6.82914 -2.62128
-8.47147 -6.68493 -2.97672
5.3182 -4.26709 2.38834
5.38647 -3.81301 2.47947
5.25751 -4.17601 2.18136
-6.42859 -5.09983 4.46573
-5.97125 -4.96873 4.64566
-6.19125 -5.23412 3.97042
5.4114 -4.09586 2.39813
5.13613 -4.65937 2.21703
-4.75853 4.07498 0.298834
-4.10936 4.34584 0.667148
5.16322 -4.27346 1.75651
5.00391 -4.51837 1.66218
4.604 -5.01474 1.70868
-2.69832 6.62236 -2.44731
-3.25212 5.91784 -2.05297
-3.77774 6.10209 -2.13963
-5.97233 -6.927 4.2887
-5.33292 -6.37868 4.563
-6.39391 -6.15756 4.38748
-5.77184 6.50289 -1.17826
-4.52986 6.03713 -2.43117
-6.09046 6.11295 -2.24909
-1.62649 -6.93941 1.36235
-2.79044 -6.7845 1.67472
-6.48712 -6.93293 1.47777
-6.02977 -7.35107 0.541001
5.62382 -2.49942 2.04515
4.36449 -2.87872 1.98439
-2.74058 5.1371 0.106142
-1.49752 5.87414 -0.338046
-2.05023 5.90656 0.0863576
-4.62306 -0.650299 0.883206
5.52519 -7.08649 -0.154172
5.56638 -7.35839 -0.753001
6.85604 -7.15719 1.07815
2.35522 4.75819 -1.90039
2.20783 3.93459 -2.14115
0.982104 3.84783 -1.84531
8.13812 -1.79917 1.33511
8.3993 -0.942889 0.767835
7.87152 -1.53893 0.662156
2.0366 3.37117 -2.80994
0.814556 3.17596 -2.14673
1.9965 3.81525 -1.53211
0.841325 3.26252 -1.43143
-10.2185 4.13973 1.64877
-8.66979 3.39203 1.23105
2.17423 -6.54585 0.570101
1.81334 -6.69543 0.69416
1.47554 -6.05063 0.847859
-0.472833 1.86444 -1.26265
-6.28554 -6.24292 -2.17574
-6.51529 -6.28835 -2.59083
-4.60139 -6.86497 -2.29833
-5.89214 2.13553 -1.97679
-5.33292 2.72074 -1.91923
-6.03736 2.10308 -2.29759
-8.15718 5.71121 1.46398
-7.09727 5.1476 1.72809
-7.56003 5.50541 0.921741
0.216542 -0.845314 0.585784
0.365233 -2.32138 0.589494
-5.96041 5.9497 1.15733
-6.87727 6.11239 0.505508
-6.30721 5.70048 0.913652
-9.63758 5.33231 -0.567262
-10.2933 5.42983 -0.468404
-10.0039 5.89582 -0.375757
-5.74258 -2.12363 -1.94189
-6.00051 -2.94507 -2.14689
-6.45135 -2.49858 -2.06335
-2.78285 -2.50304 -1.44019
-2.17703 -2.04772 -2.1608
-1.41732 4.30309 -2.28088
-2.01447 5.17006 -2.1008
-7.33569 5.81994 -0.29189
-7.26633 5.44087 -1.46134
-0.0595981 -3.45427 -2.94355
-1.2385 -4.25081 -3.01416
-0.83318 -2.61864 -3.20457
4.67662 -3.18428 1.70038
5.1448 -4.12936 1.92778
5.08302 -4.31578 2.00252
-1.32629 -1.05055 -2.71222
4.2106 -7.03248 0.691816
4.14233 -7.12568 0.68757
4.14124 -6.96633 0.493275
-8.91364 5.54882 0.593914
6.80944 1.70173 -0.502976
6.4117 1.21393 0.00477072
6.76501 0.292762 -0.083526
4.52272 -7.03686 0.935984
4.19109 -7.23609 0.0263503
5.17081 -6.79086 0.973424
3.70991 -6.8473 1.40312
3.88331 -7.38909 0.991509
4.28105 -6.90266 1.81992
9.96858 0.282067 -0.782873
9.10699 0.585635 -1.36154
7.44452 -4.35238 0.814609
8.09911 -4.04239 0.612661
8.41448 -5.36992 0.28358
3.81286 -3.42274 1.86181
4.21277 -2.9655 2.39294
9.46788 -4.66041 2.02629
8.97911 -5.7236 2.16696
8.06551 -3.20026 0.361217
7.49762 -1.95057 -0.271364
7.84551 -1.6579 -0.545819
-8.60368 3.28394 -0.160188
2.16448 -6.82164 3.10527
1.73314 -6.59951 3.31881
0.766438 -7.09257 3.07378
-1.39998 0.357992 -1.08739
-1.66984 0.531466 -1.4515
5.83081 -4.49634 -0.0942552
5.20115 -4.39012 -0.151889
4.75356 -4.48674 0.697428
-8.14634 -1.22436 -0.727909
-8.37935 -1.36545 0.276809
-7.68358 -0.455051 0.0352093
5.01475 -7.02358 -0.428999
4.80883 -6.80147 -0.116291
6.00421 -4.82478 0.235789
-6.27687 -1.33247 -2.02518
3.67306 -5.37038 2.5561
3.13877 -6.24711 2.4042
-2.10551 1.91859 -1.0589
7.71762 -2.68785 1.35585
4.54115 -6.56227 -3.92606
3.80853 -7.13535 -5.04461
4.68529 -7.078 -4.60568
4.6311 -7.03767 -0.436588
4.51622 -6.58689 -0.108445
3.91582 -7.09518 -0.0827548
7.79132 1.02994 -1.21189
7.73496 -0.292436 -0.220631
8.13812 0.997341 -0.770806
-8.4823 -5.64747 0.812828
-8.63186 -5.50963 -0.142255
-5.75883 3.78266 -1.12896
-6.24002 3.69583 -0.498127
3.99927 -3.01271 0.0518117
4.62026 0.455312 -0.0174923
2.12113 -3.82616 -2.14924
2.67384 -3.21152 -2.8839
2.35522 -4.88593 -2.82246
7.51063 -6.41103 -1.52986
5.36805 -5.16766 -3.05336
7.10205 -5.98619 -1.60672
-1.89092 2.23301 -1.68958
-2.53142 0.834872 -1.22602
-5.54208 -7.10605 0.103323
-1.53437 4.70448 -4.24239
-2.82187 5.12692 -3.12604
-2.40137 3.80478 -3.34306
-2.68531 6.92531 -0.00652921
-4.00749 5.83059 0.616405
-3.49054 6.05828 0.139167
8.62689 -3.83641 0.281508
-5.27331 3.72881 -2.78278
-6.67244 2.99165 -1.78046
-8.29807 2.80719 -0.66022
5.92727 -6.13018 2.98511
4.57149 -5.78864 2.20596
5.76037 -6.57991 2.86689
-5.55292 2.23317 -2.5154
-4.93952 2.22225 -2.06672
4.00361 -4.35993 0.645217
4.88253 -4.23772 1.88982
4.78607 -4.71892 1.94174
-10.4558 4.02063 1.10925
-9.79039 3.5872 0.74524
-3.00719 5.12684 -2.73264
-2.64413 4.2165 -2.82603
4.67878 -1.64743 1.27153
6.51899 -7.14462 -2.1044
5.44391 -6.2449 -3.0991
6.01938 -6.29475 -3.10886
5.07435 -4.19548 1.99712
-3.73547 7.04477 -1.19874
-2.5726 6.82808 -1.51632
-8.35334 -2.39953 1.14219
-8.67955 -2.35705 0.100822
-8.37393 -3.04658 1.38991
5.36588 3.75034 -2.08484
6.3185 2.87253 -2.21615
5.58155 3.07856 -2.81651
-0.222594 -5.65352 -1.41157
-1.83132 -7.02544 -1.92989
-0.537316 -5.65015 -1.96646
5.96736 2.42777 -0.169791
4.53464 2.87207 0.033286
5.29002 1.6799 0.215764
5.42657 -3.53605 -0.518782
0.353745 -0.985402 -3.33862
0.924557 -1.48398 -3.10355
0.265528 -2.22091 -3.17414
-4.36188 -4.56647 3.71046
-4.08227 -5.0834 3.59981
-3.32148 -5.20578 3.2118
2.57089 -4.27634 -0.0919345
2.73995 -2.89553 -0.611096
2.12763 -4.0226 -0.753405
-3.5534 6.08008 -0.470439
-2.84896 5.91744 -0.103405
-4.39656 6.06908 0.30119
-5.11942 6.42683 -0.231726
-5.05981 6.29663 0.495445
-9.44142 3.02372 0.384648
-9.4696 3.09969 -0.152206
-9.88468 3.66313 0.401749
-4.80622 5.53795 0.770672
-6.41017 5.23443 1.11665
-5.93332 5.0068 1.31179
-9.32221 4.68212 -0.851337
-1.12904 6.79581 -2.70521
-0.244161 7.45697 -3.06379
-4.33912 4.97526 -3.43711
-3.80483 5.23535 -3.41863
-3.32256 4.98624 -4.17514
-6.73529 -5.67945 3.54333
-6.77756 -6.56054 3.53123
-4.14404 5.29956 0.603401
-3.27596 4.8011 0.279149
-2.97467 5.10454 0.307822
8.75803 -3.07713 2.41568
7.98098 -4.03636 2.96061
8.97803 -4.22165 2.79042
-7.67816 4.23798 -1.83656
-4.82789 4.19482 -2.77835
-7.38446 3.83695 -1.63073
-4.47134 -3.04566 2.21844
-3.14808 -3.97767 2.09579
-3.52197 -3.61776 1.61793
4.22144 -6.33815 2.44536
4.49996 -5.75936 2.12794
-1.37831 -6.90999 0.578589
-0.473917 -6.03208 0.237711
-0.828845 -5.71143 0.934628
4.31681 -6.9858 0.308069
-1.31003 -7.03588 1.4292
4.97465 -5.17318 2.74688
-7.70417 -5.78207 -3.44906
-8.47688 -5.81997 -3.58778
-8.57876 -6.01189 -3.10989
-7.30101 -0.0649412 0.238059
-7.58279 -0.270646 -0.785153
3.19404 2.92626 -0.00192493
2.99788 3.35981 -0.218912
2.10162 1.8208 0.16995
-1.82373 3.98832 0.104607
-1.46176 3.95599 -0.794046
-0.108259 4.49787 -0.827532
4.34824 -6.81997 0.265186
1.563 -6.53516 1.30673
1.45375 -6.26213 1.67591
7.88019 -5.15734 -0.50394
8.73418 -6.37125 0.0224082
8.14571 -6.24646 -0.764696
-8.1225 -1.98285 -1.40107
-8.54408 -2.05889 -0.53192
3.85296 -5.41345 -4.12633
5.06026 -5.67253 -3.81426
4.24745 -5.60525 -4.26292
-5.64179 4.17287 -1.45184
-6.6616 3.78276 -1.63182
-6.2346 4.19454 -1.42691
6.37811 2.09235 -2.84489
-7.3823 -1.98346 1.60959
-7.77245 -2.0051 1.44507
9.17419 -3.60339 0.206668
4.51947 3.4899 -0.441597
5.69534 3.03473 -0.466941
-9.64409 3.69536 1.81016
-8.13659 -5.2228 1.62302
-8.34358 -3.83341 1.54527
5.25534 -4.03945 2.17597
-8.16151 2.25455 -1.01873
-7.02357 5.75482 0.200554
6.35426 3.99952 -1.66971
5.67692 3.45757 -1.29701
6.28382 3.59853 -1.66329
-1.14747 -6.58214 3.17359
-1.86058 -6.19414 3.08697
-1.31762 -7.28876 3.23414
7.63092 -5.92458 -0.789556
-1.38915 -6.76491 1.28468
-3.1264 -6.90115 -0.256116
-3.82325 -7.03246 0.607391
-4.57429 -7.00515 -0.474296
-9.64842 6.36156 0.982497
-10.1242 6.275 0.267094
-10.2293 5.74397 0.246828
-8.77167 5.50539 1.02665
-8.73915 4.84415 1.76379
-9.22793 5.53786 1.20526
-7.90358 2.91547 -0.235042
-6.01135 3.36 -1.15722
-3.36483 2.14583 0.636246
-4.03133 3.20789 0.725547
5.58263 2.05992 -3.23179
5.80697 0.802775 -3.26998
4.38617 -1.90766 1.90655
4.65928 -1.55009 2.22525
4.164 -1.2898 1.31452
1.08051 -0.866921 0.251009
-9.90527 4.87713 -0.553808
-9.82724 5.45138 0.12864
-10.445 2.93673 1.81109
-9.99522 3.07749 2.45812
-10.1665 3.42447 1.54892
-2.51842 3.95577 0.29675
-4.49301 -6.71809 0.190319
-4.53094 -7.06166 0.305452
4.5574 -6.43738 0.115597
5.90776 -3.11735 2.99656
5.77012 -2.25902 3.01841
5.59997 -2.97007 3.51788
-9.32871 6.36167 0.429209
-4.87666 -5.20378 4.00078
-4.13212 -5.63834 3.91724
-0.168298 7.25098 -2.66502
-6.0547 -2.55141 1.89342
-6.66268 -0.812949 1.31125
5.42332 -3.78371 2.28007
7.47703 -3.53845 0.647443
7.03594 -4.72842 0.673319
2.96862 -6.65653 1.26509
1.94014 -6.79332 2.40192
1.73098 -6.70429 1.63789
-4.96553 1.9292 0.045232
-4.74553 2.49277 -0.0598856
-5.11725 2.44954 -0.651731
-6.95963 -7.21552 0.146001
-7.67274 -6.87838 -0.303579
-6.85451 -7.16767 -0.639168
5.33987 -6.92728 0.310302
0.409992 1.39815 0.136809
-0.542735 0.964713 -0.204878
-0.432301 -0.0216178 0.36996
2.85158 1.17124 -3.20596
3.94617 0.889366 -2.73025
3.44764 0.607527 -2.42036
-6.44702 -7.27355 3.05532
-5.98209 -7.04472 2.26748
6.67397 -2.10208 -1.32957
5.69751 -3.38959 -1.27023
5.9381 -2.82798 -2.38529
1.01743 1.56141 -3.33051
0.227921 1.49633 -3.01949
0.809029 2.45001 -2.92176
-3.2532 -5.82029 3.30271
-3.7669 -6.13773 2.7987
-2.11743 -7.30605 2.99246
9.70306 -3.46275 1.42299
9.46463 -3.71107 2.11102
-3.8601 7.06692 -3.55806
-3.78641 6.52499 -3.28507
-4.71626 1.06209 0.575444
-5.37844 1.33311 0.185565
-1.85516 5.03962 -0.212501
-1.54737 4.84453 -0.12454
-0.382123 4.71456 -0.534225
-11.4529 4.26973 1.88722
-10.1979 3.5113 0.942251
1.47879 -6.64374 2.30116
1.23072 -5.9078 1.96535
0.705097 -7.20824 1.64212
6.82461 2.5472 -1.23867
-8.10841 3.93436 -1.01189
-6.32889 4.29206 -1.34019
8.2595 -5.36076 3.19118
9.09832 -4.97048 2.59953
7.76531 0.314736 -1.55016
7.47053 -0.140416 -1.6673
7.97556 0.943312 -1.55112
-1.89309 -2.41675 0.578853
3.86922 -4.81017 3.01031
-6.22268 0.400985 0.665044
7.18875 1.86459 -1.98552
-4.19715 -4.5186 2.77844
-1.94945 -5.86134 2.64162
4.93888 -3.59614 -3.43886
5.55012 -4.55316 -3.09659
4.88144 -4.526 -3.41737
6.25781 0.640197 -3.19307
6.18737 -0.898745 -3.12727
5.49702 -0.562751 -3.27893
-9.28862 -6.83908 -1.71093
-8.2959 -5.82568 -2.17999
5.71268 0.47693 0.256701
4.96706 0.910443 0.199459
4.91829 -1.27874 0.231418
-2.17161 2.70964 -0.596082
-2.50433 2.43864 -0.331377
4.33849 2.10258 0.171416
-2.50433 -7.32648 2.2089
-3.94897 -5.94794 2.14416
5.97062 -4.79299 -1.55662
5.83515 -4.25739 -2.64027
5.43741 -3.52371 -2.57184
1.85236 2.8077 -3.20129
2.8234 2.76439 -3.4018
2.40941 1.9841 -3.44422
4.53464 -3.29232 0.0591243
5.11554 -3.04194 -0.0995944
8.44049 -2.69403 -0.207357
8.85448 -2.34718 -0.490796
1.81117 0.141661 -3.1444
1.45137 0.47766 -3.32857
9.72798 -2.42117 0.976806
9.62069 -3.77909 0.88647
9.59685 -2.35382 0.229356
-5.22563 4.46581 -3.02756
-3.24128 3.82659 -3.99006
-4.10069 3.82648 -3.45577
-2.6994 5.15925 -2.26229
2.31404 -2.86717 -1.49662
-1.82156 3.05721 -4.3912
-3.30197 2.64523 -3.65867
-2.84354 3.05695 -3.12755
-4.15271 -4.60419 -2.65117
-8.10624 5.67857 2.0945
-8.336 5.42928 2.21041
-7.1482 5.10417 2.14207
-4.41932 -6.76208 3.34479
-4.43341 -5.92086 2.24495
-4.2806 -5.92317 2.93205
5.07002 -3.3155 2.1241
-2.00905 -1.78803 -0.136187
-1.86491 -0.779979 -0.934815
4.32548 -3.85218 3.20449
4.38725 -4.65531 3.55655
4.40785 -4.02243 3.72141
-5.5009 1.85355 -0.98955
-5.88672 1.31159 -0.566455
-8.3425 3.12142 -0.412302
-8.95807 3.0779 0.417468
-5.19962 -4.72462 3.32136
-5.49982 -4.41452 2.59748
1.9629 3.32734 -0.453226
2.09945 2.62281 -0.0016616
-6.84042 0.412167 -1.02344
-6.49579 0.878055 -0.408966
-5.94416 1.11667 -1.34625
-2.63438 -1.50606 -1.08669
8.45458 0.412328 -1.81783
-8.66763 -4.41487 -0.985408
1.07466 -2.98303 -1.99517
0.31072 -4.03311 -2.37795
1.10067 -2.29584 -2.4708
-6.94988 2.4925 1.31485
-8.40861 2.11323 1.08686
-6.95638 2.29759 0.469867
3.91907 -3.77619 2.5911
2.93503 -4.94976 1.93303
4.02311 -4.37116 2.56172
-7.88191 5.9174 0.0890692
9.95666 1.94011 -0.302542
10.9255 3.18637 -0.040887
9.4137 2.36276 -0.211421
-10.4341 3.00203 0.471116
5.09928 -4.69736 2.51397
5.32145 -4.43403 2.63107
-2.79477 -0.443936 -1.32598
-3.38975 -0.476389 -1.6186
-7.75511 -1.27892 1.0813
-7.22623 -0.531097 0.937634
-2.77526 -4.22684 1.67633
-1.79122 -5.28454 1.4663
-1.74787 -4.51183 1.49571
-3.08088 5.65727 0.234456
-3.57182 2.51505 -2.98894
-4.4074 2.98106 -3.00076
-6.76347 -5.90578 2.66328
-5.65263 5.54946 -2.55482
2.50152 -4.85427 1.35226
2.19807 -6.24562 0.441553
-8.01087 3.18612 1.21182
-8.92664 3.19688 1.58355
-8.3089 3.251 1.9011
-4.8474 2.69924 -2.78949
-4.80947 3.41452 -2.78176
4.81425 -5.07764 1.90808
5.11987 -4.72869 2.02628
5.99012 -0.812722 0.194231
-8.26447 -1.73399 0.566421
4.99199 -4.13154 2.02965
4.99849 -4.95847 2.14111
-1.41949 -4.25507 1.90282
-1.62324 -3.68379 1.21693
-2.02314 -5.66925 -3.94973
-3.50897 -5.87958 -3.58454
-2.87497 -5.23578 -3.8055
5.23583 -4.32888 2.4707
2.44734 -3.02307 -2.29755
3.2233 -1.47348 -1.41289
3.77819 -1.27816 -2.61582
-9.40458 2.62236 2.22935
5.57613 -4.11988 3.30523
7.37516 -6.18332 3.16392
8.34837 -6.28619 2.74665
8.47625 -2.13523 1.8003
8.93576 -1.88591 1.55217
-5.71223 3.72862 -1.85617
-6.06554 4.43237 1.49743
-7.63264 4.61654 1.84502
-6.08071 4.23736 1.18093
11.4121 1.71255 -0.45323
10.129 1.39828 -0.524496
10.5473 1.43087 -0.905103
-0.666283 3.24069 -0.696654
-1.98196 3.35994 -0.855942
-1.20707 0.34706 -0.619972
7.72413 -1.86393 0.0265775
7.25378 -0.574095 -0.797137
4.83484 -4.08671 0.0510511
5.22283 -5.08635 2.10857
2.5633 -6.34653 1.05068
2.70744 -6.45601 1.11763
2.49394 -6.51777 1.03991
-9.14448 3.56525 2.119
7.25703 1.55013 -1.1305
7.4326 2.25464 -1.48474
-6.73529 5.34274 1.447
-2.98876 -6.39645 -3.9813
-2.28866 -6.79851 -4.02148
-4.25459 -1.14828 -1.80406
-4.04217 -1.51687 -1.246
-4.97528 -2.19955 -1.65688
-5.19312 -2.51235 1.68426
-5.1075 -1.71247 1.3347
7.55831 -0.0430259 -0.941167
7.57023 0.0761921 -0.969321
4.1705 -6.60685 2.09742
3.57119 -6.96979 1.50887
-0.777909 -4.49889 1.78465
-0.955644 -4.82517 2.15522
-0.318615 -5.5436 1.66197
4.56607 -6.1387 2.24599
5.18923 -4.49143 2.39588
5.37022 -4.77191 1.37374
6.24697 -4.82307 2.47168
6.18845 -4.67443 1.64914
7.38058 -7.31965 0.583599
8.00373 -6.9739 0.443952
-5.60494 -0.227014 -2.1691
-3.11881 5.95022 -1.39296
6.66855 -7.12697 1.70933
5.00716 -7.06832 1.09843
-1.77171 4.82373 -4.43636
-3.73655 4.53095 -3.61277
-2.67664 4.94287 -4.06136
-3.21418 -2.9086 -0.295293
-3.17842 -3.00419 0.805997
-2.66472 -2.67133 0.0641276
2.30645 -4.78783 -0.26674
2.22192 -5.06634 -0.330304
2.26093 -4.9331 -0.0364717
-7.89599 -4.59787 -1.78092
7.58974 -7.36642 1.40637
1.2189 -7.01965 1.54896
6.6653 -7.28206 2.26418
5.96086 -7.31893 2.36063
-5.13784 -6.99309 4.21174
-4.88208 -7.30078 3.72291
-6.79165 1.96208 -1.74599
-6.08504 2.70983 -1.56702
-8.54083 -3.65184 -1.33314
5.91209 -2.55046 2.57076
2.65 0.293261 -2.53421
-4.13104 -2.88609 0.949835
-7.70742 -3.45662 -2.0267
-7.40505 -4.63575 -1.99334
-2.18245 3.2844 -2.44907
-2.27782 4.40064 -2.32855
-4.50385 4.44416 -3.16628
3.92774 -0.270464 -1.67817
4.29513 -0.216066 -2.71314
-3.23803 -7.34471 -4.06061
-2.52058 -7.35679 -3.30957
-4.13212 -7.33938 -3.63253
-2.54876 3.40368 -2.79043
-3.12965 3.65315 -3.77118
-1.52461 1.37683 -1.61389
4.23986 2.28754 -3.40948
7.19742 -5.48973 3.23776
5.89692 -5.64559 -3.10223
7.22127 -6.78371 -2.1791
5.03859 -4.27674 1.88331
8.38413 -7.30217 -0.0936345
8.55862 -6.9455 -0.645083
5.21958 -4.1218 2.08709
-5.53992 2.53632 -1.01109
6.28165 -5.03776 -2.31638
-5.1411 2.39553 -1.47388
8.81438 -0.0971418 -1.29448
9.46463 -2.87942 0.0898786
-3.92838 -6.75685 4.29957
-3.80049 -7.02445 3.85952
1.88379 -4.88196 -1.01476
1.90004 -4.74651 -0.962717
-5.80218 4.82252 1.52536
4.86627 4.43306 -1.85061
4.38183 3.95612 -1.44213
-3.41901 -0.465715 -0.815538
-3.66286 -1.85291 -0.86459
-3.18817 -0.617365 -1.18296
-7.66624 -3.27969 1.90627
-8.81935 -2.98225 -0.51997
6.75634 -0.0317974 -2.86374
7.1389 -0.0535552 -2.45517
3.96459 -7.31045 -2.01014
5.6249 -7.34858 -1.0597
4.19976 -7.34742 -1.40325
-2.79477 8.20456 -2.08176
-3.90237 6.97991 -2.03975
-3.66503 8.09617 -2.01134
-0.724805 -1.47312 -3.21734
-1.58747 -2.1126 -2.87825
9.31724 -2.69121 1.8858
-7.53944 4.80095 0.987489
-6.93904 4.62781 -0.248999
-4.47134 2.23317 -2.49806
-4.83765 1.30112 -2.39962
-0.416803 5.83082 -0.483061
8.95744 2.56888 -1.24083
8.45241 1.34436 -1.83715
-1.24934 -3.3999 1.46982
-3.32473 2.46018 0.354448
2.26418 -5.85556 0.891791
-4.62631 6.48171 -3.62754
-2.15753 6.3838 -1.82095
4.69396 -6.27262 -0.00520737
5.50894 -4.92121 0.107128
0.85769 -3.48625 -0.221932
1.73423 -0.845073 -0.596372
3.92991 0.347108 -0.859807
4.08164 -0.0105378 -0.820864
0.45345 0.206721 -3.31779
5.40598 -4.85733 0.431779
5.49918 -5.22579 0.317357
4.4512 0.346708 1.10374
4.92696 0.259976 1.26162
6.98934 -4.12072 2.09468
7.45427 -3.39977 0.820113
8.1793 -1.08337 -1.22857
7.68945 -0.769081 -1.22959
-1.63732 -5.64453 2.37072
-1.84432 -5.29981 1.95572
5.57721 -6.63747 -1.87562
-3.77882 -7.31792 -2.57153
-5.17469 -6.92658 -3.09707
-5.38169 4.01056 -2.6841
-6.53805 0.585328 0.145314
5.45041 -7.00201 0.110931
5.43416 -7.041 -0.0188024
1.85236 -5.10724 -1.716
4.79583 -6.52305 -4.94587
4.53464 -6.18926 -4.91654
-5.32317 2.59036 -0.306853
-6.1349 2.59047 -0.852847
-4.55262 -6.34825 4.13276
-3.87744 -6.25603 3.65376
-0.621849 -4.07825 1.08474
-0.566577 -4.81302 1.01729
-0.0437753 -4.04133 0.745312
-5.97558 -3.67212 2.43615
-4.37597 6.55704 -1.00702
-5.36652 5.94977 0.797958
-5.69923 6.25336 0.0893544
-5.98534 6.26412 0.471022
-4.67075 -1.96162 0.786485
-7.56653 3.01261 1.72332
2.92636 4.01033 -1.53857
3.90607 4.77986 -1.88847
3.00222 4.42223 -1.91238
-1.59181 -6.80718 1.2967
-3.44502 -7.04271 -2.27127
-5.51282 -7.20539 -1.67741
-7.76161 -6.25068 -1.34234
2.99788 -6.99496 2.71291
6.50599 -1.34315 -2.80332
4.88253 -3.32852 -3.12668
3.57986 -4.61255 -4.19552
3.09542 -4.73398 -3.92678
3.69474 -4.7352 -3.28736
-8.25797 4.1939 1.72789
-8.39777 4.99594 1.41669
-4.04109 4.98523 0.810225
4.88578 -4.51732 1.85183
0.381164 -4.53501 -1.7614
1.07281 -3.11095 -1.80338
0.99175 -3.30711 -1.81534
-2.17161 -7.30343 0.761337
-1.82915 -6.86349 1.07431
4.46962 -7.04704 3.02719
2.86241 0.596334 -0.674434
3.44222 0.780565 -0.642534
-6.98673 4.44392 -1.98716
8.55103 1.14903 -0.613415
8.93034 0.477137 -0.754656
4.26912 4.44388 -1.76824
3.80636 3.95629 -2.27337
-3.58916 5.65786 -2.65992
-0.00367649 2.47137 -1.37632
0.129083 2.1786 -0.607244
-2.67014 -7.38747 -1.66553
3.93641 0.271528 -2.24702
-5.94199 -7.3313 -0.750828
-2.94866 -7.29854 -1.95595
4.78066 -0.779532 -3.12941
3.6503 -2.76927 -3.29238
-3.85468 -7.29915 1.02827
-7.21215 -6.64948 -1.4172
4.20085 -6.16224 -4.5318
3.86272 -6.35302 -4.3476
8.16847 0.108536 -0.13981
9.33783 -1.64739 1.06616
8.73202 0.0218832 -0.374677
-8.26013 2.0702 -0.476241
-9.36773 1.92928 -0.340801
3.94075 3.63128 -2.85541
4.15967 3.06782 -3.28794
6.93082 3.36011 -1.67634
1.16515 -3.21299 -1.01442
4.63868 -5.19604 3.25841
4.09356 -6.20926 2.81061
-2.66039 3.08947 -3.15789
7.07929 -7.227 -2.04047
2.43758 -6.60773 1.10579
4.56716 -3.08242 1.77735
-2.55093 5.31083 -1.53397
-4.14188 3.24124 -3.38436
0.819217 0.715341 0.332645
-3.08739 -3.164 -2.096
-2.95625 -3.79245 -2.69436
2.56438 -0.151263 -1.6207
-5.4142 4.83424 -2.82699
4.65711 -7.21082 3.68933
4.97898 -6.10844 -2.6634
3.06724 -6.26449 -2.71329
3.65355 -5.67917 -3.1575
-2.45122 -2.82036 -2.50884
4.75898 -3.09326 1.78493
-7.12328 -5.5091 -2.75757
-6.59332 -5.25007 -2.84638
-6.6215 -5.64123 -3.19651
3.4173 -7.30525 -0.915553
-6.41234 0.0113451 -1.84284
-5.528 1.34437 -1.87616
-5.75233 -5.80103 4.50677
-8.43895 -5.85504 -1.65329
-8.57117 -6.69819 -1.69573
-8.85295 -3.06805 0.373393
-7.63914 -5.79962 -2.3924
-7.84722 -5.70443 -1.52104
-6.61391 -5.38676 -2.15281
6.84629 1.07361 -2.78765
7.45102 0.780819 -1.8882
2.30428 -6.18499 0.750728
4.38942 -5.95554 -3.11746
3.21463 -4.034 -3.31648
4.31356 -3.88337 -3.27852
6.54609 -1.8096 -0.652057
6.03781 -3.41032 -0.58454
10.2937 2.1244 -0.537137
-5.71874 3.91286 -1.89948
-6.62042 -3.82158 -3.33486
-7.29668 -4.22161 -2.74972
6.65663 -4.34368 0.664077
6.42362 -4.92341 0.25235
-4.5006 4.72513 0.820142
-8.91472 6.23174 -0.177036
-8.92122 5.6357 -0.29843
-3.52197 6.24276 -1.05802
3.38695 -6.20787 1.32522
-8.05856 3.69538 1.71045
8.37763 1.92934 -0.640675
7.95063 1.86438 -0.936444
-0.283501 1.25783 -2.69875
-6.11756 4.25955 -1.35645
4.10331 -3.53429 1.47825
3.36744 -3.98488 0.262512
-6.65943 2.46033 -0.371904
8.78837 2.73135 -0.772621
8.66482 2.35194 -0.343315
9.35301 3.58742 -0.33266
4.90745 -2.9582 3.81483
5.17081 -3.75908 3.7453
-6.82741 -4.63992 2.52048
-6.22593 -5.08541 2.84227
-6.1414 -4.46973 2.3016
-8.48339 -2.50311 -1.09014
0.1086 2.5257 -2.08834
-5.78268 -6.76506 1.99768
0.758093 8.29147 -3.09939
-5.05981 -3.09038 -1.695
-9.91286 2.39518 0.218294
2.12763 -5.21715 0.485644
6.45614 -7.19696 -0.522996
4.14774 -1.81022 2.40402
4.74489 -1.58273 2.84407
-4.8539 -4.74749 3.86973
-5.03597 6.02629 -2.4431
-9.23118 6.46977 1.77713
-9.32004 6.01449 2.31024
3.17454 -7.26 0.397411
2.93828 -7.3378 -0.734573
-6.20101 4.30289 -1.29684
7.59733 -3.23962 2.02333
1.8697 -5.31331 -0.979088
-3.90345 2.33015 0.250251
-2.07624 -5.33555 -3.49557
-2.2659 -4.10007 -3.51374
-1.69151 -5.20875 -3.52914
-8.62319 -5.57745 -2.4227
-8.75107 -5.65325 -2.72725
2.27394 0.054469 -0.734151
7.86176 1.79946 -1.45666
7.33181 -1.52781 -0.719301
-0.728057 -6.04993 2.75429
-0.56441 -6.8606 2.85166
-0.648943 3.20813 -0.43927
-3.51547 0.174 -2.2969
-5.48248 2.51467 -1.13247
-2.30492 5.5491 -0.768796
-0.0595981 5.95011 -0.863
-1.5387 5.05059 -0.82742
2.90143 -6.9073 -1.98297
2.4831 -6.84351 -1.26226
0.678968 4.10793 -1.8691
-3.9869 0.542528 -2.55476
-4.78237 -1.09403 -2.09016
-4.63173 0.369107 -2.45183
3.56469 0.336412 -1.55775
0.247971 -5.04256 -0.022622
-2.27782 4.71466 -1.02148
-8.14526 1.98289 2.50233
-5.1075 -3.86064 -3.11162
-4.68267 -2.43855 1.1696
-4.1267 -2.69295 -0.222421
4.53356 -2.38127 -3.3855
2.00517 -3.67246 -1.20309
-1.84215 -3.28944 -3.4453
-2.45122 -3.90294 -2.95123
4.95189 -2.01636 3.49423
4.42627 -3.21605 3.40403
-3.33015 5.78814 -3.76532
-4.09311 5.7447 -3.35134
-3.86118 5.83136 -3.16275
-1.46609 -6.91231 1.3357
-3.83517 2.00564 -2.76796
-2.56068 2.18985 -2.64545
-3.22719 1.07358 -2.61209
4.12173 -3.82774 0.289313
-8.29915 5.01749 2.0521
7.76206 -7.26066 -1.69043
-2.81645 -7.32222 -2.75577
-2.32117 -6.58965 -2.54862
1.18217 3.12148 -0.710768
-3.43744 3.47889 0.435091
-2.07733 2.98044 0.0475052
6.66205 -0.921016 -0.203528
-6.99431 -4.74931 2.17366
3.57877 -6.26201 -4.25113
3.33493 -5.67251 -3.92263
2.61532 -6.28146 -4.53508
2.33138 1.11639 0.0219825
-2.47832 -2.30052 -0.750887
1.51943 0.195169 0.191727
4.39051 -5.08412 -3.49335
-8.9028 3.4357 -0.368129
-6.53263 -7.21191 3.69366
-6.82741 5.26704 0.636232
-8.26555 -6.0941 -3.89237
-5.08366 -0.0867748 1.01586
-3.91429 1.04044 0.464864
-4.96119 -7.30057 2.69443
-1.47476 -7.21324 -0.404545
-2.32442 -2.83946 0.773843
2.11246 3.66339 -0.882974
7.6862 -3.55293 2.55213
-6.96613 6.28605 -0.768646
-7.24791 6.29678 -0.252994
-8.47363 4.22693 -0.80808
-9.22359 4.62786 -0.509533
-4.69351 2.81782 0.326918
-1.61023 3.19725 -0.220571
11.0328 0.715518 -0.541217
-6.57165 -6.17986 -3.18145
-1.62865 -2.96764 -3.04533
7.6992 -5.08384 0.465871
7.07279 -5.70251 -0.285566
-1.48343 6.95821 -1.89236
-6.00918 2.92595 1.55532
-4.92001 -6.51798 2.07685
-6.42426 -3.3827 2.14359
-3.2933 3.08957 -3.62607
-1.67634 4.32434 -0.185011
-4.53311 6.42715 -1.7906
-6.43943 5.95031 -1.87306
1.62228 -6.25035 2.35109
7.10097 -5.73697 -1.35957
-7.1287 0.260326 -0.462087
-5.98209 -3.7598 -3.39337
-4.13429 -5.40599 -3.50317
-6.02761 -4.69939 -3.4976
-3.44827 4.27005 0.314252
-2.8132 5.69 -0.808866
4.63977 -4.98121 2.03381
9.19911 -4.61681 0.765678
2.97079 3.41457 -3.03861
-2.48807 -5.07882 -2.94063
-4.58188 5.3329 -3.47389
3.95592 -5.73844 -4.79182
3.7836 -5.37757 -4.73322
5.55229 -4.2155 -0.782706
-1.50402 1.59367 -2.06469
-4.00966 -5.5331 3.30602
-3.7669 3.9882 0.696986
6.93082 -6.86492 2.78013
3.6839 -1.00757 -0.91427
-1.63516 2.53654 -2.09809
-2.35152 2.73114 0.23787
-3.173 3.02374 0.314193
9.14384 -0.422434 -0.479024
6.56343 -5.01283 2.97667
-7.55678 4.44366 -0.683404
-1.39023 -7.16269 1.47534
-2.84679 5.76639 -3.43803
-0.586085 -5.28037 2.25158
-1.3252 -6.03688 2.5202
-8.9093 2.11348 -0.168446
8.27467 2.28713 -1.35685
8.20531 3.21899 -0.550786
-3.15024 2.68845 -2.98132
3.26774 -2.89452 -0.255516
-1.57555 3.86917 -0.205262
-5.92573 -0.314401 1.20558
-8.90063 -3.97412 0.662202
5.56204 -4.55459 -1.38968
6.98176 -2.41323 -0.74224
-0.920964 -0.844583 -3.0048
4.61809 -2.80956 2.9717
-3.3334 -2.46523 -0.873384
6.57427 -5.54204 -0.691941
-9.05019 6.62177 0.43248
-8.34575 6.61097 0.259901
-8.98842 6.33989 0.951172
-8.66763 5.83042 1.46856
-8.53216 6.49158 1.1077
3.68607 -7.11529 2.89279
0.141763 3.69611 -1.87568
0.339765 3.40349 -1.82264
-4.1668 -3.13494 -1.09569
-3.44611 -3.09049 -1.17588
-10.6834 2.85014 1.26041
6.78018 -1.45161 -2.36442
1.56484 -5.95999 2.7879
-9.12605 5.62443 1.85065
-0.918797 7.51101 -2.35826
-4.52878 -2.59307 -1.04356
2.54379 -6.14834 1.70953
1.54598 -5.99221 1.36016
2.74754 -5.92611 1.40808
3.47473 -6.01176 1.54158
-1.48452 -7.10793 -1.31542
0.670591 2.27604 -0.157142
-3.3735 -5.36714 -2.73478
2.98271 -5.06035 -3.16497
2.22625 -5.32035 -3.61478
5.45583 -5.28458 -3.64836
-1.19299 -5.25122 2.7913
-0.274289 -6.04661 2.38798
-3.0798 5.27879 -3.86838
-5.60277 3.57644 0.38515
-1.07594 7.4244 -2.77769
-4.06926 2.26581 -3.12663
7.42609 -7.21228 0.210918
2.2696 -5.05014 -0.0784368
7.36649 -0.281461 -0.896782
3.32518 3.73921 -0.628927
-7.37363 -6.80496 1.05438
-7.08643 4.94233 -1.40833
-8.32191 4.64949 -0.305241
-0.315797 2.70988 -1.78377
-4.04325 -1.24607 -0.541291
-3.73655 -2.3959 -0.716226
-6.18041 -5.34379 5.01514
5.98579 -5.11281 -1.00831
-10.7701 2.37342 0.623504
-8.03255 4.95284 0.169396
-7.53944 2.22213 -1.49342
1.84802 -5.79708 1.08103
4.77415 -0.748082 2.08669
5.14588 -1.56101 2.66308