<?xml version="1.0"?>
<VTKFile type="PolyData" version="0.1" byte_order="LittleEndian" compressor="vtkZLibDataCompressor">
	<PolyData>
		<Piece NumberOfPoints="3305" NumberOfVerts="0" NumberOfLines="0" NumberOfStrips="0" NumberOfPolys="3779">
		<PointData Normals="Normals">
		<DataArray type="Float32" Name="Normals" NumberOfComponents="3" format="ascii">
			 0.881972 -0.471302  0.000413
			 0.999973  0.007336 -0.000000
			 0.994804  0.101808 -0.000000
			 0.380446  0.912085 -0.152844
			 0.993213 -0.115735  0.011583
			 0.572654 -0.819725  0.010878
			 0.931026  0.364951  0.001078
			 0.842872  0.538093 -0.004793
			 0.868929  0.494731 -0.014234
			 0.910342  0.413772 -0.008377
			 0.997901  0.064756 -0.000243
			 0.966998 -0.254741 -0.004578
			 0.986549 -0.163431 -0.003308
			-0.757532 -0.637474 -0.140616
			 0.943197 -0.328928  0.046752
			 0.724658  0.315912  0.612430
			 0.779692 -0.445863  0.439644
			 0.380808  0.106897  0.918454
			 0.380808  0.106897  0.918454
			-0.504198 -0.862938 -0.033485
			-0.854149 -0.507100  0.115238
			-0.885418 -0.418596  0.202020
			-0.664809  0.746930 -0.011108
			-0.308791 -0.933070 -0.184470
			-0.923211  0.379426 -0.060978
			-0.826495  0.562915  0.005661
			 0.650897  0.759053  0.013110
			-0.672585  0.740014 -0.003002
			 0.415215  0.909722 -0.001413
			-0.494296  0.868197  0.043649
			 0.240758  0.970334  0.022069
			-0.296292  0.954045  0.044826
			 0.104354  0.994440 -0.014123
			-0.919537 -0.392913  0.008441
			-0.702254 -0.711925  0.001098
			-0.546302 -0.837576  0.004546
			-0.444810 -0.884425 -0.141193
			-0.453069 -0.891466  0.004156
			-0.319408 -0.946712  0.041404
			-0.467453 -0.883757 -0.021479
			-0.356957 -0.925568 -0.126122
			-0.125168 -0.989157 -0.076826
			-0.171046 -0.985143 -0.015413
			-0.227822 -0.973687 -0.005453
			-0.266866 -0.963579 -0.017238
			-0.279301 -0.959732 -0.030084
			-0.386218 -0.875352  0.290851
			-0.407565 -0.846972  0.341364
			-0.546558 -0.832756  0.088273
			-0.614545 -0.779038 -0.124234
			-0.521828 -0.852159 -0.038981
			-0.346247 -0.937587  0.032316
			-0.168130 -0.949065  0.266473
			-0.064465 -0.969528  0.236348
			-0.216162 -0.976241 -0.015064
			-0.259369 -0.965749  0.007489
			-0.189025 -0.974725  0.119083
			 0.252645 -0.957870 -0.136589
			 0.256381 -0.915166 -0.311029
			-0.301552 -0.896936 -0.323376
			 0.135797 -0.926687 -0.350443
			 0.534412 -0.796807 -0.281959
			 0.522650 -0.845923 -0.106069
			 0.734045 -0.648257  0.202336
			 0.816546 -0.532195  0.223656
			 0.620578 -0.782902  0.044120
			 0.306594 -0.949509  0.066575
			-0.039299 -0.988841  0.143700
			-0.384170 -0.889349 -0.247936
			-0.473977 -0.694724 -0.541022
			-0.458058 -0.886444  0.066330
			-0.192895 -0.980905 -0.024839
			 0.320762 -0.944484  0.071144
			-0.477296 -0.867747 -0.138579
			-0.494748 -0.868995 -0.008499
			 0.302387 -0.949377  0.085125
			 0.159308 -0.525022 -0.836046
			-0.383873 -0.923375  0.004592
			 0.627033  0.350730  0.695570
			 0.466345 -0.884594 -0.003945
			 0.251602 -0.653987 -0.713440
			-0.925068 -0.373605 -0.068319
			 0.999589  0.028640  0.001140
			-0.986815 -0.124122 -0.103875
			 0.980302  0.197504  0.000067
			-0.994296  0.098724 -0.040366
			 0.981795  0.189944 -0.000539
			-0.935525  0.352530 -0.022689
			 0.957788  0.287474 -0.000138
			-0.931088  0.354569 -0.085767
			 0.908020  0.418927  0.000299
			-0.057955  0.998319  0.000000
			 0.408218 -0.520167 -0.750190
			 0.592075 -0.014282 -0.805756
			 0.178493 -0.848656 -0.497919
			 0.325115 -0.741545 -0.586866
			 0.502475  0.150394 -0.851411
			 0.120899 -0.925318 -0.359404
			 0.795791 -0.549744 -0.253967
			 0.831404  0.216007 -0.511965
			 0.270195 -0.931009 -0.245390
			 0.667217  0.121336 -0.734914
			 0.622500 -0.751885 -0.217170
			 0.908064  0.201294 -0.367287
			 0.884729  0.049555 -0.463463
			 0.965674  0.176247 -0.190816
			 0.730329  0.667950  0.143046
			 0.727586  0.510210 -0.458588
			 0.860104  0.170318 -0.480845
			 0.673017 -0.657774 -0.338204
			 0.314290 -0.917752 -0.242803
			 0.735379 -0.656566 -0.167745
			 0.925838  0.134690 -0.353104
			 0.782915 -0.542416 -0.304680
			 0.430612  0.401377  0.808375
			 0.956331 -0.273537 -0.102998
			 0.397400 -0.074328  0.914630
			 0.856629 -0.462443 -0.228763
			 0.330450 -0.363226  0.871131
			 0.843628 -0.308661 -0.439340
			 0.810290 -0.229398 -0.539265
			 0.508077 -0.790328  0.342402
			 0.354486 -0.593924  0.722214
			 0.885719 -0.190297 -0.423425
			 0.644812 -0.718434  0.260902
			 0.974502 -0.128918 -0.183644
			 0.552512 -0.794996  0.250423
			 0.731316 -0.150894 -0.665138
			 0.604775  0.003889 -0.796387
			 0.690385  0.009932 -0.723374
			 0.522145  0.199629 -0.829164
			 0.661821  0.299832 -0.687091
			 0.870911  0.362908 -0.331378
			 0.804233  0.524818 -0.278882
			 0.829452  0.474919 -0.294042
			 0.989754  0.132843 -0.052342
			 0.982665 -0.179214 -0.047460
			 0.985044 -0.171705 -0.014309
			 0.896465 -0.296311 -0.329469
			 0.935693 -0.306782 -0.174251
			 0.938544 -0.037001 -0.343172
			 0.679833 -0.187841 -0.708902
			 0.834956  0.344689 -0.428997
			 0.780962  0.221501 -0.583983
			 0.690429 -0.603061 -0.399530
			 0.720495 -0.589828 -0.364678
			 0.917343 -0.270264 -0.292300
			 0.660295  0.411273 -0.628382
			 0.677123  0.128615 -0.724543
			 0.807158 -0.000009 -0.590336
			 0.883760 -0.318768 -0.342571
			 0.917718 -0.290214 -0.271236
			 0.892269 -0.416386 -0.174582
			 0.974889 -0.159508  0.155396
			 0.868415 -0.485804 -0.099241
			 0.629401 -0.695896 -0.345809
			 0.719803 -0.210925 -0.661358
			 0.772094 -0.014554 -0.635341
			 0.903033 -0.075448 -0.422893
			 0.610055  0.266016 -0.746370
			 0.924510  0.177212 -0.337457
			 0.601794  0.276072 -0.749419
			 0.642768  0.167662 -0.747488
			 0.567860 -0.120563 -0.814248
			 0.346816 -0.603192 -0.718247
			 0.706596 -0.573462 -0.414564
			 0.328544  0.308689 -0.892620
			 0.149118  0.542089 -0.826984
			 0.441058  0.631521 -0.637690
			 0.540562  0.717127 -0.439911
			 0.261456 -0.703624 -0.660722
			 0.241433 -0.840126 -0.485693
			 0.818522 -0.521967 -0.239940
			 0.927188 -0.245774 -0.282697
			 0.235820 -0.957598 -0.165516
			 0.296455 -0.947325  0.121203
			 0.895056 -0.372916 -0.244557
			 0.916108 -0.146435 -0.373233
			 0.020754 -0.824672 -0.565231
			-0.027095 -0.975038 -0.220380
			 0.052228 -0.589184 -0.806309
			 0.113565 -0.377630 -0.918966
			 0.275643 -0.164246 -0.947124
			 0.188765  0.288183 -0.938785
			-0.000787  0.683688 -0.729774
			 0.064659  0.802606 -0.592995
			 0.956073 -0.072923 -0.283913
			 0.364813  0.924667 -0.109099
			 0.768509 -0.628454 -0.120165
			 0.973137  0.153213 -0.171845
			 0.879057 -0.368412 -0.302541
			 0.918242 -0.322419 -0.229953
			 0.830842 -0.556305  0.015068
			 0.722997 -0.568095 -0.393119
			 0.754271 -0.190655 -0.628272
			 0.800575 -0.426681 -0.420741
			 0.523675 -0.352035 -0.775781
			 0.835514 -0.538854 -0.107482
			 0.887912 -0.452710 -0.081650
			 0.846324 -0.500962 -0.181032
			 0.631224 -0.770738 -0.086710
			 0.737040 -0.583191 -0.341555
			 0.903905  0.160432 -0.396507
			 0.454256  0.889836  0.042924
			 0.386992 -0.798578 -0.460989
			 0.260559 -0.951257 -0.164980
			 0.779113 -0.582462 -0.231777
			 0.901470 -0.328189 -0.282211
			 0.844640 -0.179385 -0.504385
			 0.742128  0.266783 -0.614876
			 0.621842  0.781549 -0.049938
			 0.854510  0.279563 -0.437785
			 0.889568  0.452453 -0.062890
			 0.752990  0.155322 -0.639439
			 0.675540 -0.197496 -0.710381
			 0.590236 -0.605130 -0.534264
			 0.175174 -0.960558 -0.215970
			 0.455261  0.136704 -0.879801
			 0.661442  0.218990 -0.717313
			 0.391172  0.184760 -0.901581
			 0.444618 -0.633364 -0.633376
			 0.511385 -0.243719 -0.824067
			-0.107803 -0.984035 -0.141611
			 0.434468  0.578206 -0.690590
			 0.516241 -0.039538 -0.855531
			 0.841847 -0.209349 -0.497461
			 0.960501 -0.242330  0.136799
			 0.127772  0.914686 -0.383436
			 0.172229  0.978042 -0.117346
			 0.378106  0.912343  0.157057
			 0.429610  0.834403  0.345263
			 0.678471  0.542879  0.494934
			 0.779887 -0.155966  0.606177
			 0.197267  0.150646 -0.968706
			 0.610123 -0.332447 -0.719187
			 0.488799  0.269471 -0.829735
			 0.762544 -0.175495 -0.622678
			 0.810137  0.071084 -0.581916
			 0.880641 -0.183859 -0.436654
			-0.058470 -0.985453  0.159575
			 0.382448 -0.873142  0.302252
			 0.469165 -0.815221  0.339556
			 0.672092 -0.690975  0.266168
			 0.003626 -0.829213  0.558921
			 0.237546 -0.560142  0.793608
			 0.515288 -0.432381  0.739949
			-0.065027 -0.229803 -0.971062
			-0.005780 -0.838468 -0.544921
			-0.294853 -0.339827 -0.893073
			-0.313135 -0.089637 -0.945469
			-0.572524 -0.075412 -0.816412
			-0.366891  0.391714 -0.843772
			-0.411858 -0.019237 -0.911045
			-0.449243 -0.112143 -0.886344
			-0.401010 -0.505512 -0.763969
			-0.361814 -0.145555 -0.920817
			-0.407433 -0.048983 -0.911921
			-0.675331 -0.695166 -0.246318
			-0.698774 -0.266227 -0.663956
			-0.588737 -0.000912 -0.808324
			-0.685074  0.100838 -0.721461
			-0.826535 -0.003228 -0.562876
			-0.953426 -0.090700 -0.287669
			-0.960953 -0.164390 -0.222590
			-0.939707 -0.169007  0.297300
			-0.656638 -0.729045  0.193183
			-0.970920 -0.088652  0.222385
			-0.915177 -0.328034 -0.234188
			-0.946607  0.042187  0.319617
			-0.927442 -0.215271 -0.305793
			-0.994928  0.028377  0.096502
			-0.614602  0.454851  0.644496
			-0.723290 -0.233996  0.649690
			-0.682163 -0.580548  0.444543
			-0.894551  0.430955 -0.118556
			-0.591542 -0.721181 -0.360522
			-0.906060 -0.131890 -0.402071
			-0.775250  0.196590 -0.600283
			-0.163473 -0.557089 -0.814204
			-0.512532 -0.238970 -0.824745
			-0.937986  0.124808 -0.323427
			-0.349722 -0.349619 -0.869172
			-0.711835  0.020888 -0.702036
			-0.837053  0.215395 -0.502939
			 0.180872 -0.654083 -0.734480
			-0.525179 -0.850618 -0.025210
			-0.646990 -0.762453 -0.008360
			-0.108966 -0.574041 -0.811544
			 0.255366 -0.049435 -0.965580
			 0.347102  0.816293 -0.461721
			-0.172149 -0.519657 -0.836852
			 0.103588  0.913194 -0.394139
			 0.132131  0.900269 -0.414798
			 0.026829 -0.613085 -0.789561
			 0.018627 -0.698045 -0.715812
			-0.526178 -0.850319  0.009696
			-0.090564 -0.988085 -0.124446
			 0.212951 -0.952725 -0.216718
			-0.608231 -0.088678  0.788791
			-0.507401 -0.065732  0.859200
			-0.012872 -0.040446  0.999099
			 0.374254 -0.692540  0.616703
			-0.346931  0.613044  0.709800
			-0.184400  0.813381  0.551731
			-0.417390  0.249690 -0.873751
			-0.600388  0.196400 -0.775217
			-0.602155  0.131920 -0.787405
			-0.022971  0.040070 -0.998933
			 0.248305 -0.525086 -0.814020
			 0.358190 -0.403812 -0.841805
			 0.647977 -0.410109 -0.641823
			 0.601019 -0.403611 -0.689836
			 0.624123 -0.253289 -0.739132
			 0.707416 -0.265016 -0.655232
			 0.491538 -0.232415 -0.839270
			 0.597822 -0.226336 -0.769013
			 0.361642 -0.314221 -0.877770
			 0.407348 -0.354420 -0.841698
			 0.343819 -0.328155 -0.879831
			 0.420461 -0.274796 -0.864697
			-0.046186  0.924754  0.377751
			-0.107041  0.988890 -0.103149
			-0.103738  0.448487 -0.887749
			 0.298379  0.940922 -0.160114
			 0.273538  0.935059  0.225480
			 0.265108  0.634809  0.725766
			 0.031862  0.167959 -0.985279
			 0.376221  0.562070 -0.736570
			 0.570544  0.810585 -0.132029
			 0.604605  0.221928 -0.764984
			 0.365362 -0.038911 -0.930052
			 0.482509 -0.056799 -0.874047
			 0.420505 -0.228376 -0.878078
			 0.663704  0.310636 -0.680443
			 0.252751 -0.512925 -0.820381
			 0.332479 -0.157505 -0.929866
			 0.342524 -0.337802 -0.876679
			 0.289891 -0.769333 -0.569289
			 0.373162 -0.698867 -0.610193
			 0.412141 -0.857267 -0.308599
			 0.583152 -0.800628 -0.137584
			 0.479036 -0.726179 -0.493141
			-0.034519 -0.338196 -0.940443
			 0.203714 -0.454510 -0.867134
			-0.449787 -0.273283 -0.850299
			-0.354203 -0.342787 -0.870079
			-0.337050 -0.385618 -0.858892
			-0.468792 -0.193983 -0.861745
			-0.280420 -0.249999 -0.926750
			-0.302467 -0.326963 -0.895326
			-0.304557 -0.283287 -0.909392
			-0.343026 -0.325876 -0.880987
			-0.303388 -0.252278 -0.918864
			-0.216592 -0.210213 -0.953362
			 0.234246 -0.187356 -0.953953
			-0.164755 -0.252673 -0.953421
			 0.210655 -0.168599 -0.962912
			-0.144070 -0.273853 -0.950920
			-0.159673 -0.353016 -0.921892
			 0.178857 -0.255286 -0.950179
			-0.164967 -0.460273 -0.872316
			 0.166888 -0.456799 -0.873775
			 0.145160 -0.651862 -0.744314
			-0.055453 -0.603711 -0.795272
			 0.193418 -0.659640 -0.726268
			-0.497615 -0.327811 -0.803068
			-0.553790 -0.214700 -0.804500
			-0.574498 -0.354720 -0.737649
			-0.551853 -0.440659 -0.708010
			-0.489942 -0.498759 -0.714980
			-0.500530 -0.559790 -0.660382
			-0.600062 -0.284480 -0.747661
			-0.459055 -0.338180 -0.821524
			-0.809393 -0.103941 -0.577996
			-0.659877 -0.199748 -0.724337
			-0.753327 -0.157398 -0.638533
			-0.734904 -0.256229 -0.627904
			-0.656861 -0.318816 -0.683293
			-0.713153 -0.455252 -0.533064
			-0.752276 -0.398286 -0.524833
			-0.628521 -0.324295 -0.706961
			-0.719530 -0.541059 -0.435352
			-0.847520 -0.343716 -0.404437
			-0.712134 -0.592975 -0.375826
			-0.891095 -0.330485 -0.311014
			-0.692750 -0.649664 -0.313104
			-0.896982 -0.395571 -0.197348
			-0.609654 -0.636819 -0.471999
			-0.891464 -0.410463 -0.191866
			-0.910149 -0.414282 -0.000131
			-0.253403  0.928610 -0.271055
			 0.074542  0.985228 -0.154173
			 0.759026 -0.341541 -0.554282
			 0.494149 -0.134977 -0.858835
			-0.408478 -0.174928 -0.895849
			-0.646466  0.034592 -0.762158
			-0.091862  0.283697 -0.954504
			 0.632859  0.350250 -0.690517
			 0.328963 -0.463712 -0.822651
			 0.266164 -0.615671 -0.741691
			-0.419078  0.100242 -0.902400
			 0.535175 -0.578235 -0.615818
			-0.077254 -0.786074 -0.613286
			-0.358414 -0.794957 -0.489472
			 0.536394 -0.645518 -0.543681
			 0.426345 -0.671087 -0.606524
			 0.299474 -0.555493 -0.775721
			 0.160621 -0.441327 -0.882854
			 0.222666 -0.838553 -0.497242
			 0.402470 -0.701922 -0.587642
			 0.209208 -0.220127 -0.952773
			-0.297656  0.951375  0.079289
			 0.340606 -0.659998 -0.669620
			 0.386081 -0.818097 -0.426214
			 0.392833 -0.912110 -0.117209
			 0.802417 -0.542200 -0.249291
			 0.935656  0.349719  0.047381
			 0.540082 -0.640265 -0.546235
			 0.122986 -0.676281 -0.726305
			 0.488411 -0.698585 -0.522910
			 0.565828 -0.626144 -0.536454
			 0.875496 -0.182820 -0.447307
			 0.857449 -0.450169 -0.249257
			 0.786062 -0.599576 -0.150385
			-0.379384 -0.786328 -0.487603
			-0.010967 -0.966156 -0.257726
			 0.351562 -0.670910 -0.652904
			 0.933409 -0.358380  0.017635
			 0.857618  0.115878 -0.501062
			 0.502071 -0.182384 -0.845376
			 0.746535 -0.647312  0.153859
			 0.100895 -0.994880  0.005766
			 0.779948 -0.334600 -0.528890
			 0.925748 -0.327185 -0.189578
			-0.813038  0.566597 -0.133930
			-0.478576  0.442868 -0.758177
			 0.157837  0.144558 -0.976827
			 0.700854 -0.120575 -0.703040
			 0.877900 -0.208272 -0.431178
			 0.755381 -0.116926 -0.644769
			-0.195697  0.358356 -0.912844
			-0.501357  0.322782 -0.802778
			-0.227457  0.072386 -0.971094
			 0.223553  0.161113 -0.961284
			 0.726842  0.088400 -0.681092
			 0.649623  0.039418 -0.759234
			-0.446780  0.139680 -0.883672
			-0.335418  0.078528 -0.938791
			-0.046907  0.008708 -0.998861
			-0.130161 -0.128306 -0.983156
			 0.474911 -0.111445 -0.872949
			 0.843233 -0.115689 -0.524951
			 0.527027 -0.020195 -0.849608
			-0.086669 -0.036450 -0.995570
			-0.087820 -0.000144 -0.996136
			 0.517034 -0.069879 -0.853107
			 0.870156 -0.219261 -0.441309
			 0.143037 -0.045988 -0.988648
			-0.418191  0.213892 -0.882817
			 0.112173  0.004620 -0.993678
			 0.667671 -0.070083 -0.741150
			 0.927361 -0.066086 -0.368286
			 0.976746 -0.005048 -0.214340
			 0.366166  0.229953 -0.901690
			-0.154871  0.104586 -0.982383
			 0.308443  0.143241 -0.940396
			 0.771420  0.220883 -0.596759
			 0.976463  0.215329  0.012385
			 0.968167  0.105033  0.227203
			 0.625242  0.292826 -0.723412
			-0.053195  0.262355 -0.963504
			 0.543762  0.274474 -0.793087
			 0.916500  0.258071 -0.305659
			 0.927094  0.246969  0.281964
			 0.881934  0.390040 -0.264689
			 0.476272  0.195044 -0.857393
			 0.833182  0.315215 -0.454365
			 0.934281  0.355229  0.030516
			 0.818255  0.304286  0.487718
			-0.731397  0.187368 -0.655707
			-0.307335 -0.036176 -0.950914
			 0.262482 -0.218534 -0.939865
			 0.683238 -0.341925 -0.645192
			 0.835444 -0.353764 -0.420577
			 0.204562 -0.261093 -0.943390
			-0.582484  0.212472 -0.784581
			-0.458748 -0.040925 -0.887623
			-0.125039 -0.360178 -0.924466
			 0.306020 -0.502826 -0.808405
			 0.561418 -0.432987 -0.705218
			-0.253691 -0.524452 -0.812767
			-0.849013 -0.108847 -0.517038
			-0.487832 -0.217149 -0.845497
			 0.029624 -0.411833 -0.910778
			 0.135206 -0.475212 -0.869421
			 0.500489 -0.543987 -0.673490
			-0.131324 -0.851303 -0.507974
			-0.551629 -0.310280 -0.774230
			-0.028814 -0.586121 -0.809711
			 0.315611 -0.610449 -0.726459
			-0.041034 -0.976584 -0.211188
			 0.130590 -0.693666 -0.708360
			-0.362908 -0.453033 -0.814284
			 0.176611 -0.580554 -0.794837
			 0.568761 -0.581506 -0.581688
			 0.704110 -0.565733 -0.429156
			 0.335682 -0.393789 -0.855714
			-0.224770 -0.917286 -0.328733
			-0.118496 -0.528778 -0.840448
			-0.059486 -0.523590 -0.849891
			 0.299377 -0.765187 -0.569967
			 0.738877 -0.569753 -0.359781
			 0.782347 -0.593928  0.187569
			 0.834014 -0.540745  0.109617
			-0.079292 -0.417337 -0.905286
			-0.061120 -0.326540 -0.943205
			 0.512131 -0.522875 -0.681413
			 0.747422 -0.664330 -0.005037
			 0.848160 -0.410131  0.335286
			 0.968798 -0.116286  0.218879
			 0.817164  0.527724 -0.231840
			 0.503767 -0.140169 -0.852391
			 0.645147 -0.570919 -0.507776
			 0.365359 -0.900522 -0.235740
			 0.730281 -0.682205 -0.035852
			-0.852809 -0.495194  0.165833
			-0.641189 -0.718296 -0.270051
			-0.755192 -0.544409 -0.365109
			-0.541694 -0.729428 -0.417735
			-0.055426 -0.836841 -0.544632
			 0.429892 -0.787933 -0.440856
			-0.227015 -0.888571  0.398631
			-0.878739 -0.358056  0.315617
			-0.689284 -0.513063 -0.511521
			-0.482787 -0.666125 -0.568501
			-0.296126 -0.927341 -0.228797
			 0.020117 -0.964179 -0.264488
			 0.029168 -0.886984 -0.460878
			-0.770796 -0.478464 -0.420650
			-0.914346 -0.356275 -0.192458
			-0.531182 -0.761073 -0.372309
			-0.223909 -0.941995 -0.250019
			 0.050529 -0.992835 -0.108284
			-0.235124 -0.904637  0.355455
			-0.586875 -0.808627 -0.041222
			 0.016282 -0.981561  0.190455
			 0.436124 -0.883744  0.169682
			-0.412965 -0.871923  0.263078
			-0.557801 -0.828763  0.044829
			-0.030934 -0.982508  0.183634
			-0.267686 -0.947838 -0.173053
			-0.496734 -0.853286 -0.158615
			-0.267807 -0.890331  0.368225
			 0.133489 -0.832813  0.537218
			 0.220609 -0.661319  0.716930
			-0.156585 -0.987140  0.032170
			-0.456309 -0.813143 -0.361360
			-0.291957 -0.956413 -0.006015
			-0.235666 -0.963744  0.125132
			-0.253526 -0.843131  0.474189
			-0.072962 -0.960425  0.268812
			-0.238807 -0.948722 -0.207118
			-0.597620 -0.780988  0.181406
			-0.492241 -0.865485  0.092920
			-0.826252 -0.220544  0.518331
			-0.612968 -0.667963  0.422014
			-0.397667 -0.855491 -0.331656
			-0.551071 -0.826295 -0.116434
			-0.736497 -0.675832  0.028692
			-0.300152 -0.953745 -0.016700
			-0.330004 -0.924461  0.190969
			-0.465992 -0.854488 -0.229567
			-0.169166 -0.812174 -0.558352
			-0.122151 -0.864450 -0.487652
			-0.361538 -0.851864 -0.378969
			-0.510382 -0.813081 -0.280018
			 0.039843 -0.966343 -0.254152
			-0.590307 -0.758506 -0.276053
			-0.934364 -0.327596 -0.140160
			-0.573402 -0.796106 -0.193456
			-0.261103 -0.937308 -0.230821
			-0.343895 -0.934730 -0.089536
			 0.100754 -0.961423  0.255959
			 0.078380 -0.985643  0.149551
			-0.310858 -0.943010 -0.118742
			-0.109137 -0.988296  0.106587
			 0.151536 -0.966832  0.205606
			 0.171732 -0.975142  0.140024
			-0.530858 -0.847458 -0.002120
			-0.251864 -0.958503  0.133552
			-0.116356 -0.963199  0.242297
			-0.487275 -0.844319  0.222908
			-0.601055 -0.681662  0.417217
			-0.383684 -0.659554  0.646355
			-0.229049 -0.585652  0.777527
			-0.101674 -0.465109  0.879395
			-0.399723 -0.662664  0.633323
			-0.690004 -0.675458  0.260097
			-0.699517 -0.623367  0.349413
			-0.606538 -0.651945  0.455060
			-0.632074 -0.746941  0.206306
			-0.758999 -0.620438  0.197425
			-0.838538 -0.542668 -0.048630
			-0.816702 -0.574221  0.057159
			-0.778208 -0.575430  0.251538
			-0.758660 -0.593000  0.269790
			-0.687553 -0.700750  0.190315
			-0.244177 -0.956998  0.156630
			 0.178259 -0.927529 -0.328503
			 0.185830 -0.969553  0.159480
			-0.732725 -0.663232  0.152437
			-0.656681 -0.721095 -0.220890
			-0.570821 -0.791168 -0.219582
			-0.380334 -0.858181 -0.344777
			-0.206662 -0.974794 -0.084064
			 0.216939 -0.974357  0.059719
			-0.305830 -0.952075  0.004687
			-0.900295 -0.385744  0.201671
			-0.401130 -0.905351  0.139409
			 0.157719 -0.987186 -0.024281
			 0.175296 -0.964902  0.195540
			 0.255095 -0.844440  0.471007
			 0.114073 -0.818558  0.562983
			-0.558761 -0.825584  0.078728
			 0.165724 -0.952367  0.255993
			 0.455996 -0.808221  0.372622
			 0.058083 -0.950441  0.305432
			-0.529511 -0.844366 -0.081629
			-0.346806 -0.900838  0.261182
			 0.138371 -0.884286  0.445972
			 0.376699 -0.899219  0.222493
			 0.461515 -0.865279  0.195693
			-0.342020 -0.891783  0.296217
			-0.812499 -0.451374  0.368927
			-0.473819 -0.503297  0.722625
			-0.136260 -0.421975  0.896309
			 0.025874 -0.350453  0.936223
			-0.222923 -0.491260  0.842003
			-0.675619 -0.460738  0.575551
			-0.814782 -0.471516  0.337346
			-0.797811 -0.427115  0.425523
			-0.761748 -0.292317  0.578179
			-0.883647 -0.445087  0.145138
			-0.868831 -0.494757 -0.018658
			-0.800075 -0.597149 -0.057380
			-0.804813 -0.553543  0.214164
			-0.733431 -0.419947  0.534531
			-0.351495 -0.341109  0.871835
			-0.099941 -0.391023  0.914939
			 0.341288 -0.809658  0.477468
			 0.623131 -0.779973  0.057879
			-0.047364 -0.572691  0.818402
			-0.671338 -0.276040  0.687828
			-0.180759 -0.480502  0.858163
			 0.374152 -0.564573  0.735709
			-0.281941 -0.613268  0.737842
			-0.842990 -0.224799  0.488706
			-0.186233 -0.418007  0.889150
			 0.446225 -0.424673  0.787741
			 0.478049 -0.343377  0.808431
			-0.415600 -0.189447  0.889599
			-0.876369 -0.187321  0.443722
			-0.645076 -0.274208  0.713223
			-0.090569 -0.322528  0.942217
			 0.384081 -0.252197  0.888188
			 0.053110 -0.101096  0.993458
			-0.665555 -0.104843  0.738948
			-0.431072 -0.284750  0.856209
			 0.180093 -0.281248  0.942585
			 0.305139 -0.423636  0.852891
			 0.092499 -0.668287  0.738131
			-0.455210 -0.147700  0.878048
			-0.192302 -0.593831  0.781271
			-0.245748 -0.261162  0.933489
			-0.669180  0.708801  0.223157
			-0.211161  0.976122 -0.050969
			-0.321889  0.725965  0.607751
			-0.349620  0.708037  0.613555
			-0.603230  0.754306  0.259107
			-0.962116 -0.114212 -0.247564
			-0.313224  0.188255  0.930833
			-0.633030  0.541533  0.553186
			-0.443907  0.832894 -0.330506
			 0.090449 -0.399161  0.912409
			-0.051802 -0.890013  0.452984
			-0.582865 -0.358138  0.729387
			-0.621260 -0.206133  0.756006
			-0.100620 -0.556158  0.824963
			 0.014709 -0.780158  0.625410
			-0.510243 -0.371154  0.775820
			 0.499323  0.628783  0.596078
			 0.409673 -0.672112  0.616793
			-0.650427 -0.408012  0.640680
			-0.647515  0.079997  0.757842
			 0.629653  0.276097  0.726159
			 0.259537 -0.388322  0.884221
			-0.449645 -0.202955  0.869844
			 0.069457  0.941099 -0.330920
			 0.557960  0.764020  0.323965
			 0.017457  0.085795  0.996160
			-0.163078  0.128427  0.978219
			-0.620972 -0.126963  0.773482
			-0.631602 -0.671527  0.387466
			 0.340888  0.891440 -0.298548
			-0.914589 -0.356253  0.191337
			-0.713299  0.619486 -0.327783
			-0.776179  0.624771 -0.084899
			 0.276729  0.960568  0.027038
			-0.121242 -0.956834  0.264138
			-0.298144 -0.925137  0.235014
			-0.461458 -0.739175  0.490587
			-0.394592  0.872614 -0.287822
			-0.052714 -0.962056 -0.267712
			-0.362979 -0.731673 -0.576975
			-0.320831 -0.808992 -0.492544
			-0.369454 -0.721258 -0.585910
			-0.327827 -0.840078 -0.432201
			-0.185961 -0.982430 -0.015803
			-0.184375 -0.982854 -0.002080
			-0.265738 -0.963537  0.031300
			-0.263367 -0.937269  0.228394
			 0.301767  0.392719 -0.868739
			 0.117176  0.133019 -0.984163
			-0.283359 -0.017791 -0.958849
			-0.285149 -0.076956 -0.955389
			-0.747884 -0.523971  0.407582
			-0.197187 -0.684817 -0.701529
			 0.430958 -0.650605 -0.625291
			 0.863411 -0.470653  0.181677
			 0.597044 -0.281750  0.751103
			-0.016517 -0.360186  0.932734
			-0.913471 -0.404637 -0.042882
			-0.182471 -0.375033 -0.908875
			 0.551435 -0.152304 -0.820197
			 0.998786  0.017887 -0.045907
			 0.418535  0.133203  0.898379
			-0.741913 -0.112134  0.661053
			-0.926019  0.369347  0.077922
			-0.933492  0.358170 -0.017523
			-0.937788  0.340819 -0.066301
			-0.936375  0.308463 -0.167490
			-0.879711  0.399464 -0.257948
			-0.803796  0.465293 -0.370695
			-0.701083  0.511259 -0.497089
			-0.559729  0.607920 -0.563149
			-0.477138  0.645107 -0.596805
			-0.400061  0.658792 -0.637138
			-0.272563  0.698987 -0.661155
			-0.153266  0.701593 -0.695900
			-0.077609  0.675635 -0.733140
			-0.020968  0.652094 -0.757848
			 0.050416  0.622369 -0.781098
			 0.114014  0.601273 -0.790868
			 0.173781  0.579067 -0.796544
			 0.154869  0.557817 -0.815387
			 0.231192  0.571578 -0.787305
			 0.321486  0.579864 -0.748601
			 0.359544  0.559233 -0.746985
			 0.421854  0.609147 -0.671550
			 0.477731  0.632543 -0.609641
			 0.529915  0.684758 -0.500296
			 0.621622  0.681105 -0.386888
			 0.703260  0.676774 -0.217721
			 0.773092  0.613953 -0.159342
			 0.804580  0.583036 -0.112782
			 0.813689  0.578325 -0.058736
			 0.823705  0.567019 -0.000070
			-0.810846  0.581001 -0.070468
			-0.723157  0.651775 -0.228545
			-0.577283  0.739296 -0.346677
			-0.452540  0.783613 -0.425627
			-0.361535  0.794225 -0.488364
			-0.257890  0.820074 -0.510853
			-0.145100  0.817608 -0.557193
			-0.073402  0.802195 -0.592534
			-0.026636  0.792109 -0.609798
			 0.039718  0.786383 -0.616461
			 0.095593  0.779378 -0.619219
			 0.129550  0.771793 -0.622536
			 0.201154  0.757260 -0.621365
			 0.313935  0.758758 -0.570729
			 0.345648  0.786325 -0.512074
			 0.386707  0.806697 -0.446875
			 0.471407  0.809742 -0.349419
			 0.533933  0.797236 -0.281657
			 0.620554  0.767606 -0.160292
			-0.642535  0.763413 -0.065945
			-0.562030  0.805606 -0.187403
			-0.487302  0.836029 -0.252173
			-0.407940  0.860155 -0.306133
			-0.326032  0.877668 -0.351285
			-0.229645  0.896474 -0.378943
			-0.113388  0.906786 -0.406058
			-0.061064  0.902518 -0.426300
			-0.019776  0.901177 -0.433000
			 0.027933  0.900392 -0.434183
			 0.080785  0.887758 -0.453166
			 0.159338  0.897254 -0.411761
			 0.235364  0.896604 -0.375108
			 0.276935  0.898545 -0.340475
			 0.356096  0.898811 -0.255607
			 0.385134  0.902081 -0.194734
			 0.402815  0.908344 -0.112476
			-0.475795  0.878212 -0.048600
			-0.399249  0.904356 -0.150798
			-0.290060  0.935348 -0.202457
			-0.171293  0.955025 -0.242046
			-0.081187  0.961085 -0.264053
			-0.065235  0.958909 -0.276113
			-0.032061  0.958703 -0.282595
			 0.016546  0.957950 -0.286457
			 0.064399  0.955403 -0.288197
			 0.130816  0.963659 -0.232915
			 0.142596  0.964472 -0.222394
			 0.158227  0.969890 -0.185145
			 0.223880  0.968678 -0.107432
			-0.267750  0.962164 -0.050491
			-0.150139  0.979041 -0.137609
			-0.084256  0.977942 -0.191127
			-0.055714  0.974753 -0.216224
			-0.019211  0.977649 -0.209366
			 0.032666  0.987068 -0.156940
			 0.073964  0.991209 -0.109698
			-0.069087 -0.709319  0.701494
			-0.586430 -0.380176  0.715238
			-0.471315 -0.366590  0.802168
			-0.002566 -0.548053  0.836439
			 0.023709 -0.862681  0.505192
			 0.601576 -0.794974  0.078245
			 0.025313 -0.988740  0.147488
			-0.247754 -0.811956  0.528532
			-0.408674 -0.583238  0.702011
			 0.050321  0.929386  0.365662
			 0.241344  0.916819  0.318112
			-0.089498  0.790414  0.606000
			-0.239246  0.683637  0.689493
			-0.565701 -0.269559  0.779307
			-0.683394 -0.517491  0.514952
			-0.711147 -0.630429  0.311174
			-0.808557 -0.566014  0.160820
			-0.767215 -0.628413  0.128368
			-0.665237 -0.595809  0.449968
			-0.116294 -0.533092  0.838027
			-0.355138 -0.420418  0.834941
			-0.490510 -0.297797  0.818973
			-0.461320 -0.291545  0.837965
			-0.254293 -0.373361  0.892153
			-0.009223 -0.471590  0.881770
			 0.085635 -0.596586  0.797967
			-0.036769 -0.631830  0.774234
			-0.242564 -0.549445  0.799545
			-0.343881 -0.476841  0.808930
			-0.395377 -0.451624  0.799820
			-0.440577 -0.471489  0.763931
			-0.384515 -0.502200  0.774560
			-0.396743 -0.528741  0.750352
			-0.585998 -0.575064  0.570883
			-0.695819 -0.637328  0.331132
			-0.713327 -0.675107  0.188137
			-0.714282 -0.687264  0.132174
			-0.695152 -0.666168  0.270153
			-0.652156 -0.678354  0.338420
			-0.371783 -0.850321  0.372466
			-0.526198 -0.753780  0.393614
			-0.540992 -0.762015  0.355893
			-0.525081 -0.708109  0.472092
			-0.309092 -0.811187  0.496425
			-0.215119 -0.861867  0.459248
			-0.263804 -0.855332  0.445887
			-0.341710 -0.838780  0.423891
			-0.442388 -0.768590  0.462128
			-0.370705 -0.713420  0.594652
			-0.482640 -0.761712  0.432265
			-0.608930 -0.793195  0.006744
			-0.621805 -0.780600  0.063423
			-0.562020 -0.816336  0.133148
			-0.392499 -0.871606 -0.293680
			-0.502701 -0.837142 -0.215603
			-0.503765 -0.828551 -0.244385
			-0.485452 -0.833900 -0.262578
			-0.394970 -0.907973 -0.139945
			-0.305297 -0.952064 -0.019187
			-0.246983 -0.967721  0.050164
			-0.244721 -0.966613  0.075968
			-0.234944 -0.964800  0.118164
			-0.197201 -0.961299  0.192393
			-0.327054 -0.944906  0.013731
			-0.408237 -0.905172 -0.118353
			-0.382501 -0.923950 -0.003087
			-0.401411 -0.913417  0.067366
			-0.894623 -0.441072  0.071449
			-0.745934 -0.465551 -0.476283
			-0.728027 -0.555639 -0.401549
			-0.651975 -0.691567 -0.310909
			-0.521465 -0.818904 -0.239730
			-0.416734 -0.857743 -0.301015
			-0.374236 -0.820188 -0.432711
			-0.369545 -0.823671 -0.430119